 Gaussian 09, Revision A.01,
 Gaussian 09:  EM64L-G09RevA.01  8-May-2009

 -----------------------------------------
 # b3lyp/6-31+g(d) Symmetry=None formcheck
 -----------------------------------------

 ------
 Newtes
 ------
 Symbolic Z-matrix:
 Charge =  0 Multiplicity = 1

                          Input orientation:
 ---------------------------------------------------------------------
 Center     Atomic      Atomic             Coordinates (Angstroms)
 Number     Number       Type             X           Y           Z
 ---------------------------------------------------------------------
      1          6           0        1.200000    0.000000    0.000000
      2          8           0        2.420000    0.000000    0.000000
 ---------------------------------------------------------------------

 SCF Done:  E(RB3LYP) =  -113.304593641     A.U. after    8 cycles

 Alpha  occ. eigenvalues --  -19.27620 -10.34644  -1.12906  -0.58504  -0.45620
 Alpha  occ. eigenvalues --   -0.45620  -0.39406
 Alpha virt. eigenvalues --   -0.07199  -0.07199   0.02830   0.05587   0.06957
 Alpha virt. eigenvalues --    0.06957   0.17784   0.20748   0.20748   0.25791
 Alpha virt. eigenvalues --    0.37536   0.62869   0.62869   0.66723   1.01013

 Mulliken atomic charges:
              1
     1  C    0.185355
     2  O   -0.185355
 Sum of Mulliken atomic charges =   0.00000

 Dipole moment (field-independent basis, Debye):
    X=             -0.2851    Y=              0.0000    Z=              0.0000  Tot=              0.2851
 Quadrupole moment (field-independent basis, Debye-Ang):
   XX=            -13.5626   YY=            -10.5069   ZZ=            -10.5069
   XY=              0.0000   XZ=              0.0000   YZ=              0.0000

 Normal termination of Gaussian 09 at Tue Oct  5 04:58:03 2021.
