 Output coordinates in a.u. (scale by  1.000000000 to convert to a.u.)

  No.       Tag          Charge          X              Y              Z
 ---- ---------------- ---------- -------------- -------------- --------------
    1 C                    6.0000     0.00000000     0.00000000     0.00000000
    2 O                    8.0000     2.10000000     0.00000000     0.00000000

         Total DFT energy =     -113.193875397354

                       DFT Final Molecular Orbital Analysis
                       ------------------------------------

 Vector    1  Occ=2.000000D+00  E=-1.887255D+01

 Vector    2  Occ=2.000000D+00  E=-1.000204D+01

 Vector    3  Occ=2.000000D+00  E=-1.079937D+00

 Vector    4  Occ=2.000000D+00  E=-5.081230D-01

 Vector    5  Occ=2.000000D+00  E=-4.295032D-01

 Vector    6  Occ=2.000000D+00  E=-4.295032D-01

 Vector    7  Occ=2.000000D+00  E=-3.159611D-01

 Vector    8  Occ=0.000000D+00  E=-5.042465D-02

 Vector    9  Occ=0.000000D+00  E=-5.042465D-02

 Vector   10  Occ=0.000000D+00  E= 2.212182D-01

 Vector   11  Occ=0.000000D+00  E= 4.227382D-01

 Vector   12  Occ=0.000000D+00  E= 4.227382D-01

 Vector   13  Occ=0.000000D+00  E= 4.675493D-01

 Vector   14  Occ=0.000000D+00  E= 7.136858D-01

 Vector   15  Occ=0.000000D+00  E= 7.589691D-01

 Vector   16  Occ=0.000000D+00  E= 8.869287D-01

 Vector   17  Occ=0.000000D+00  E= 8.869287D-01

 Vector   18  Occ=0.000000D+00  E= 1.049802D+00

 Vector   19  Occ=0.000000D+00  E= 1.049802D+00

 Vector   20  Occ=0.000000D+00  E= 1.240055D+00

 Vector   21  Occ=0.000000D+00  E= 1.240055D+00

 Vector   22  Occ=0.000000D+00  E= 1.528157D+00

 Vector   23  Occ=0.000000D+00  E= 1.896510D+00

 Vector   24  Occ=0.000000D+00  E= 2.303691D+00

 Vector   25  Occ=0.000000D+00  E= 2.476895D+00

 Vector   26  Occ=0.000000D+00  E= 2.476895D+00

 Vector   27  Occ=0.000000D+00  E= 2.961433D+00

 Vector   28  Occ=0.000000D+00  E= 2.961433D+00

 Vector   29  Occ=0.000000D+00  E= 3.386071D+00

 Vector   30  Occ=0.000000D+00  E= 5.422614D+00

     Multipole analysis of the density
     ---------------------------------

     L   x y z        total         alpha         beta         nuclear
     -   - - -        -----         -----         ----         -------
     0   0 0 0     -0.000000     -7.000000     -7.000000     14.000000

     1   1 0 0      0.156017     -8.321991     -8.321991     16.800000
     1   0 1 0      0.000000      0.000000      0.000000      0.000000
     1   0 0 1     -0.000000     -0.000000     -0.000000      0.000000

     2   2 0 0     -8.518002    -21.899001    -21.899001     35.280000
     2   1 1 0     -0.000000     -0.000000     -0.000000      0.000000
     2   1 0 1     -0.000000     -0.000000     -0.000000      0.000000
     2   0 2 0     -7.388840     -3.694420     -3.694420      0.000000
     2   0 1 1     -0.000000     -0.000000     -0.000000      0.000000

 Total times  cpu:        1.6s     wall:        1.6s
